<?xml version="1.0" encoding="UTF-8"?>

<!-- generated on Mon Nov 26 08:26:40 2018 by Eclipse SUMO Version v1_0_1+0501-1176d4f
<configuration xmlns:xsi="http://www.w3.org/2001/XMLSchema-instance" xsi:noNamespaceSchemaLocation="http://sumo.dlr.de/xsd/sumoConfiguration.xsd">

    <input>
        <net-file value="./data/quickstart.net.xml"/>
        <route-files value="./data/quickstart.rou.xml"/>
        <additional-files value="./data/quickstart.det.xml"/>
    </input>

    <output>
        <netstate-dump value="./data/quickstart.netstate.xml"/>
        <tripinfo-output value="./data/quickstart.tripinfo.xml"/>
    </output>

    <time>
        <begin value="0"/>
        <end value="5000"/>
    </time>

    <processing>
        <time-to-teleport value="-1"/>
    </processing>

    <report>
        <verbose value="false"/>
    </report>

    <traci_server>
        <remote-port value="50131"/>
    </traci_server>

    <gui_only>
        <start value="true"/>
    </gui_only>

</configuration>
-->

<tripinfos xmlns:xsi="http://www.w3.org/2001/XMLSchema-instance" xsi:noNamespaceSchemaLocation="http://sumo.dlr.de/xsd/tripinfo_file.xsd">
    <tripinfo id="1312" depart="1312.00" departLane="8_7_0" departPos="5.10" departSpeed="0.00" departDelay="0.00" arrival="1377.00" arrivalLane="6_5_1" arrivalPos="300.00" arrivalSpeed="15.70" duration="65.00" routeLength="994.90" waitingTime="0.00" waitingCount="0" stopTime="0.00" timeLoss="6.23" rerouteNo="0" devices="tripinfo_1312" vType="DEFAULT_VEHTYPE" speedFactor="1.22" vaporized=""/>
    <tripinfo id="1338" depart="1338.00" departLane="6_7_0" departPos="5.10" departSpeed="0.00" departDelay="0.00" arrival="1378.00" arrivalLane="6_7_0" arrivalPos="400.00" arrivalSpeed="10.08" duration="40.00" routeLength="394.90" waitingTime="0.00" waitingCount="0" stopTime="0.00" timeLoss="4.11" rerouteNo="0" devices="tripinfo_1338" vType="DEFAULT_VEHTYPE" speedFactor="0.80" vaporized=""/>
    <tripinfo id="1299" depart="1299.00" departLane="5_6_0" departPos="5.10" departSpeed="0.00" departDelay="0.00" arrival="1381.00" arrivalLane="7_8_0" arrivalPos="300.00" arrivalSpeed="13.06" duration="82.00" routeLength="994.90" waitingTime="0.00" waitingCount="0" stopTime="0.00" timeLoss="6.89" rerouteNo="0" devices="tripinfo_1299" vType="DEFAULT_VEHTYPE" speedFactor="0.96" vaporized=""/>
    <tripinfo id="1328" depart="1328.00" departLane="8_7_0" departPos="5.10" departSpeed="0.00" departDelay="0.00" arrival="1412.00" arrivalLane="6_5_0" arrivalPos="300.00" arrivalSpeed="11.90" duration="84.00" routeLength="994.90" waitingTime="0.00" waitingCount="0" stopTime="0.00" timeLoss="6.85" rerouteNo="0" devices="tripinfo_1328" vType="DEFAULT_VEHTYPE" speedFactor="0.94" vaporized=""/>
    <tripinfo id="958" depart="958.00" departLane="7_3_0" departPos="5.10" departSpeed="0.00" departDelay="0.00" arrival="1417.00" arrivalLane="3_4_0" arrivalPos="300.00" arrivalSpeed="13.56" duration="459.00" routeLength="494.90" waitingTime="406.00" waitingCount="2" stopTime="0.00" timeLoss="423.24" rerouteNo="0" devices="tripinfo_958" vType="DEFAULT_VEHTYPE" speedFactor="1.00" vaporized=""/>
    <tripinfo id="1364" depart="1364.00" departLane="5_6_0" departPos="5.10" departSpeed="0.00" departDelay="0.00" arrival="1418.00" arrivalLane="6_7_0" arrivalPos="400.00" arrivalSpeed="14.23" duration="54.00" routeLength="694.90" waitingTime="0.00" waitingCount="0" stopTime="0.00" timeLoss="5.57" rerouteNo="0" devices="tripinfo_1364" vType="DEFAULT_VEHTYPE" speedFactor="1.04" vaporized=""/>
    <tripinfo id="1127" depart="1129.00" departLane="4_3_0" departPos="5.10" departSpeed="0.00" departDelay="2.00" arrival="1422.00" arrivalLane="7_8_0" arrivalPos="300.00" arrivalSpeed="10.24" duration="293.00" routeLength="794.90" waitingTime="207.00" waitingCount="2" stopTime="0.00" timeLoss="222.15" rerouteNo="0" devices="tripinfo_1127" vType="DEFAULT_VEHTYPE" speedFactor="0.81" vaporized=""/>
    <tripinfo id="627" depart="627.00" departLane="2_3_0" departPos="5.10" departSpeed="0.00" departDelay="0.00" arrival="1431.00" arrivalLane="3_4_1" arrivalPos="300.00" arrivalSpeed="12.10" duration="804.00" routeLength="694.90" waitingTime="710.00" waitingCount="5" stopTime="0.00" timeLoss="750.39" rerouteNo="0" devices="tripinfo_627" vType="DEFAULT_VEHTYPE" speedFactor="0.94" vaporized=""/>
    <tripinfo id="431" depart="431.00" departLane="4_3_0" departPos="5.10" departSpeed="0.00" departDelay="0.00" arrival="1440.00" arrivalLane="6_5_0" arrivalPos="300.00" arrivalSpeed="15.84" duration="1009.00" routeLength="1194.90" waitingTime="821.00" waitingCount="14" stopTime="0.00" timeLoss="934.46" rerouteNo="0" devices="tripinfo_431" vType="DEFAULT_VEHTYPE" speedFactor="1.16" vaporized=""/>
    <tripinfo id="1376" depart="1378.00" departLane="5_6_0" departPos="5.10" departSpeed="0.00" departDelay="2.00" arrival="1443.00" arrivalLane="2_1_1" arrivalPos="300.00" arrivalSpeed="13.47" duration="65.00" routeLength="794.90" waitingTime="0.00" waitingCount="0" stopTime="0.00" timeLoss="7.13" rerouteNo="0" devices="tripinfo_1376" vType="DEFAULT_VEHTYPE" speedFactor="0.99" vaporized=""/>
    <tripinfo id="167" depart="167.00" departLane="2_3_0" departPos="5.10" departSpeed="0.00" departDelay="0.00" arrival="1447.00" arrivalLane="6_5_1" arrivalPos="300.00" arrivalSpeed="12.92" duration="1280.00" routeLength="1294.90" waitingTime="1047.00" waitingCount="19" stopTime="0.00" timeLoss="1186.76" rerouteNo="0" devices="tripinfo_167" vType="DEFAULT_VEHTYPE" speedFactor="1.01" vaporized=""/>
    <tripinfo id="1406" depart="1406.00" departLane="5_6_0" departPos="5.10" departSpeed="0.00" departDelay="0.00" arrival="1458.00" arrivalLane="6_2_2" arrivalPos="200.00" arrivalSpeed="11.67" duration="52.00" routeLength="494.90" waitingTime="2.00" waitingCount="1" stopTime="0.00" timeLoss="12.14" rerouteNo="0" devices="tripinfo_1406" vType="DEFAULT_VEHTYPE" speedFactor="0.91" vaporized=""/>
    <tripinfo id="1383" depart="1383.00" departLane="8_7_0" departPos="5.10" departSpeed="0.00" departDelay="0.00" arrival="1460.00" arrivalLane="6_5_1" arrivalPos="300.00" arrivalSpeed="13.84" duration="77.00" routeLength="994.90" waitingTime="0.00" waitingCount="0" stopTime="0.00" timeLoss="6.47" rerouteNo="0" devices="tripinfo_1383" vType="DEFAULT_VEHTYPE" speedFactor="1.03" vaporized=""/>
    <tripinfo id="1427" depart="1427.00" departLane="5_6_0" departPos="5.10" departSpeed="0.00" departDelay="0.00" arrival="1479.00" arrivalLane="6_7_0" arrivalPos="400.00" arrivalSpeed="14.47" duration="52.00" routeLength="694.90" waitingTime="0.00" waitingCount="0" stopTime="0.00" timeLoss="5.43" rerouteNo="0" devices="tripinfo_1427" vType="DEFAULT_VEHTYPE" speedFactor="1.09" vaporized=""/>
    <tripinfo id="1423" depart="1423.00" departLane="5_6_0" departPos="5.10" departSpeed="0.00" departDelay="0.00" arrival="1487.00" arrivalLane="2_1_1" arrivalPos="300.00" arrivalSpeed="14.31" duration="64.00" routeLength="794.90" waitingTime="0.00" waitingCount="0" stopTime="0.00" timeLoss="8.91" rerouteNo="0" devices="tripinfo_1423" vType="DEFAULT_VEHTYPE" speedFactor="1.06" vaporized=""/>
    <tripinfo id="1453" depart="1453.00" departLane="5_6_0" departPos="5.10" departSpeed="0.00" departDelay="0.00" arrival="1494.00" arrivalLane="6_2_2" arrivalPos="200.00" arrivalSpeed="13.43" duration="41.00" routeLength="494.90" waitingTime="0.00" waitingCount="0" stopTime="0.00" timeLoss="6.92" rerouteNo="0" devices="tripinfo_1453" vType="DEFAULT_VEHTYPE" speedFactor="1.06" vaporized=""/>
    <tripinfo id="1445" depart="1445.00" departLane="6_7_0" departPos="5.10" departSpeed="0.00" departDelay="0.00" arrival="1497.00" arrivalLane="7_8_0" arrivalPos="300.00" arrivalSpeed="14.06" duration="52.00" routeLength="694.90" waitingTime="0.00" waitingCount="0" stopTime="0.00" timeLoss="5.78" rerouteNo="0" devices="tripinfo_1445" vType="DEFAULT_VEHTYPE" speedFactor="1.09" vaporized=""/>
    <tripinfo id="667" depart="667.00" departLane="6_2_0" departPos="5.10" departSpeed="0.00" departDelay="0.00" arrival="1519.00" arrivalLane="2_3_2" arrivalPos="400.00" arrivalSpeed="5.62" duration="852.00" routeLength="594.90" waitingTime="772.00" waitingCount="5" stopTime="0.00" timeLoss="813.31" rerouteNo="0" devices="tripinfo_667" vType="DEFAULT_VEHTYPE" speedFactor="1.11" vaporized=""/>
    <tripinfo id="554" depart="554.00" departLane="5_6_0" departPos="5.10" departSpeed="0.00" departDelay="0.00" arrival="1519.00" arrivalLane="2_3_0" arrivalPos="400.00" arrivalSpeed="5.17" duration="965.00" routeLength="894.90" waitingTime="809.00" waitingCount="10" stopTime="0.00" timeLoss="887.53" rerouteNo="0" devices="tripinfo_554" vType="DEFAULT_VEHTYPE" speedFactor="0.83" vaporized=""/>
    <tripinfo id="1489" depart="1489.00" departLane="6_7_0" departPos="5.10" departSpeed="0.00" departDelay="0.00" arrival="1522.00" arrivalLane="6_7_0" arrivalPos="400.00" arrivalSpeed="13.58" duration="33.00" routeLength="394.90" waitingTime="0.00" waitingCount="0" stopTime="0.00" timeLoss="4.82" rerouteNo="0" devices="tripinfo_1489" vType="DEFAULT_VEHTYPE" speedFactor="1.03" vaporized=""/>
    <tripinfo id="761" depart="761.00" departLane="7_3_0" departPos="5.10" departSpeed="0.00" departDelay="0.00" arrival="1529.00" arrivalLane="3_2_0" arrivalPos="400.00" arrivalSpeed="5.48" duration="768.00" routeLength="594.90" waitingTime="683.00" waitingCount="7" stopTime="0.00" timeLoss="729.48" rerouteNo="0" devices="tripinfo_761" vType="DEFAULT_VEHTYPE" speedFactor="1.12" vaporized=""/>
    <tripinfo id="883" depart="883.00" departLane="2_6_0" departPos="5.10" departSpeed="0.00" departDelay="0.00" arrival="1529.00" arrivalLane="2_6_0" arrivalPos="200.00" arrivalSpeed="6.79" duration="646.00" routeLength="194.90" waitingTime="604.00" waitingCount="5" stopTime="0.00" timeLoss="632.45" rerouteNo="0" devices="tripinfo_883" vType="DEFAULT_VEHTYPE" speedFactor="1.06" vaporized=""/>
    <tripinfo id="367" depart="367.00" departLane="7_3_0" departPos="5.10" departSpeed="0.00" departDelay="0.00" arrival="1532.00" arrivalLane="2_6_0" arrivalPos="200.00" arrivalSpeed="8.20" duration="1165.00" routeLength="794.90" waitingTime="990.00" waitingCount="17" stopTime="0.00" timeLoss="1108.29" rerouteNo="0" devices="tripinfo_367" vType="DEFAULT_VEHTYPE" speedFactor="1.02" vaporized=""/>
    <tripinfo id="651" depart="655.00" departLane="2_3_0" departPos="5.10" departSpeed="0.00" departDelay="4.00" arrival="1541.00" arrivalLane="3_4_0" arrivalPos="300.00" arrivalSpeed="13.75" duration="886.00" routeLength="694.90" waitingTime="788.00" waitingCount="5" stopTime="0.00" timeLoss="835.95" rerouteNo="0" devices="tripinfo_651" vType="DEFAULT_VEHTYPE" speedFactor="1.01" vaporized=""/>
    <tripinfo id="1515" depart="1515.00" departLane="6_7_0" departPos="5.10" departSpeed="0.00" departDelay="0.00" arrival="1548.00" arrivalLane="6_7_0" arrivalPos="400.00" arrivalSpeed="13.65" duration="33.00" routeLength="394.90" waitingTime="0.00" waitingCount="0" stopTime="0.00" timeLoss="4.36" rerouteNo="0" devices="tripinfo_1515" vType="DEFAULT_VEHTYPE" speedFactor="1.00" vaporized=""/>
    <tripinfo id="294" depart="294.00" departLane="7_3_0" departPos="5.10" departSpeed="0.00" departDelay="0.00" arrival="1549.00" arrivalLane="6_5_0" arrivalPos="300.00" arrivalSpeed="14.88" duration="1255.00" routeLength="1094.90" waitingTime="1050.00" waitingCount="20" stopTime="0.00" timeLoss="1182.40" rerouteNo="0" devices="tripinfo_294" vType="DEFAULT_VEHTYPE" speedFactor="1.09" vaporized=""/>
    <tripinfo id="403" depart="403.00" departLane="8_7_0" departPos="5.10" departSpeed="0.00" departDelay="0.00" arrival="1550.00" arrivalLane="2_1_0" arrivalPos="300.00" arrivalSpeed="14.64" duration="1147.00" routeLength="1194.90" waitingTime="899.00" waitingCount="17" stopTime="0.00" timeLoss="1066.02" rerouteNo="0" devices="tripinfo_403" vType="DEFAULT_VEHTYPE" speedFactor="1.07" vaporized=""/>
    <tripinfo id="1184" depart="1184.00" departLane="4_3_0" departPos="5.10" departSpeed="0.00" departDelay="0.00" arrival="1551.00" arrivalLane="7_8_0" arrivalPos="300.00" arrivalSpeed="12.95" duration="367.00" routeLength="794.90" waitingTime="290.00" waitingCount="3" stopTime="0.00" timeLoss="309.82" rerouteNo="0" devices="tripinfo_1184" vType="DEFAULT_VEHTYPE" speedFactor="1.00" vaporized=""/>
    <tripinfo id="228" depart="1316.00" departLane="3_2_0" departPos="5.10" departSpeed="0.00" departDelay="1088.00" arrival="1551.00" arrivalLane="3_2_0" arrivalPos="400.00" arrivalSpeed="4.41" duration="235.00" routeLength="394.90" waitingTime="194.00" waitingCount="2" stopTime="0.00" timeLoss="208.27" rerouteNo="0" devices="tripinfo_228" vType="DEFAULT_VEHTYPE" speedFactor="1.06" vaporized=""/>
    <tripinfo id="1201" depart="1201.00" departLane="4_3_0" departPos="5.10" departSpeed="0.00" departDelay="0.00" arrival="1552.00" arrivalLane="3_7_2" arrivalPos="200.00" arrivalSpeed="5.69" duration="351.00" routeLength="494.90" waitingTime="289.00" waitingCount="4" stopTime="0.00" timeLoss="316.01" rerouteNo="0" devices="tripinfo_1201" vType="DEFAULT_VEHTYPE" speedFactor="1.03" vaporized=""/>
    <tripinfo id="1266" depart="1266.00" departLane="4_3_0" departPos="5.10" departSpeed="0.00" departDelay="0.00" arrival="1554.00" arrivalLane="3_7_2" arrivalPos="200.00" arrivalSpeed="7.64" duration="288.00" routeLength="494.90" waitingTime="217.00" waitingCount="3" stopTime="0.00" timeLoss="241.87" rerouteNo="0" devices="tripinfo_1266" vType="DEFAULT_VEHTYPE" speedFactor="0.78" vaporized=""/>
    <tripinfo id="54" depart="54.00" departLane="1_2_0" departPos="5.10" departSpeed="0.00" departDelay="0.00" arrival="1556.00" arrivalLane="7_6_0" arrivalPos="400.00" arrivalSpeed="15.00" duration="1502.00" routeLength="1294.90" waitingTime="1263.00" waitingCount="22" stopTime="0.00" timeLoss="1415.93" rerouteNo="0" devices="tripinfo_54" vType="DEFAULT_VEHTYPE" speedFactor="1.09" vaporized=""/>
    <tripinfo id="1481" depart="1481.00" departLane="5_6_0" departPos="5.10" departSpeed="0.00" departDelay="0.00" arrival="1567.00" arrivalLane="7_8_0" arrivalPos="300.00" arrivalSpeed="12.64" duration="86.00" routeLength="994.90" waitingTime="0.00" waitingCount="0" stopTime="0.00" timeLoss="6.80" rerouteNo="0" devices="tripinfo_1481" vType="DEFAULT_VEHTYPE" speedFactor="0.91" vaporized=""/>
    <tripinfo id="1191" depart="1191.00" departLane="4_3_0" departPos="5.10" departSpeed="0.00" departDelay="0.00" arrival="1572.00" arrivalLane="7_8_1" arrivalPos="300.00" arrivalSpeed="14.99" duration="381.00" routeLength="794.90" waitingTime="302.00" waitingCount="4" stopTime="0.00" timeLoss="327.69" rerouteNo="0" devices="tripinfo_1191" vType="DEFAULT_VEHTYPE" speedFactor="1.09" vaporized=""/>
    <tripinfo id="629" depart="629.00" departLane="1_2_0" departPos="5.10" departSpeed="0.00" departDelay="0.00" arrival="1572.00" arrivalLane="3_4_1" arrivalPos="300.00" arrivalSpeed="14.66" duration="943.00" routeLength="994.90" waitingTime="821.00" waitingCount="7" stopTime="0.00" timeLoss="875.96" rerouteNo="0" devices="tripinfo_629" vType="DEFAULT_VEHTYPE" speedFactor="1.08" vaporized=""/>
    <tripinfo id="452" depart="452.00" departLane="8_7_0" departPos="5.10" departSpeed="0.00" departDelay="0.00" arrival="1573.00" arrivalLane="2_1_0" arrivalPos="300.00" arrivalSpeed="13.66" duration="1121.00" routeLength="1194.90" waitingTime="888.00" waitingCount="19" stopTime="0.00" timeLoss="1037.61" rerouteNo="0" devices="tripinfo_452" vType="DEFAULT_VEHTYPE" speedFactor="1.03" vaporized=""/>
    <tripinfo id="1023" depart="1023.00" departLane="2_6_0" departPos="5.10" departSpeed="0.00" departDelay="0.00" arrival="1575.00" arrivalLane="2_6_0" arrivalPos="200.00" arrivalSpeed="5.89" duration="552.00" routeLength="194.90" waitingTime="510.00" waitingCount="4" stopTime="0.00" timeLoss="535.58" rerouteNo="0" devices="tripinfo_1023" vType="DEFAULT_VEHTYPE" speedFactor="0.87" vaporized=""/>
    <tripinfo id="1509" depart="1509.00" departLane="5_6_0" departPos="5.10" departSpeed="0.00" departDelay="0.00" arrival="1577.00" arrivalLane="2_1_1" arrivalPos="300.00" arrivalSpeed="12.40" duration="68.00" routeLength="794.90" waitingTime="0.00" waitingCount="0" stopTime="0.00" timeLoss="6.81" rerouteNo="0" devices="tripinfo_1509" vType="DEFAULT_VEHTYPE" speedFactor="0.94" vaporized=""/>
    <tripinfo id="962" depart="962.00" departLane="1_2_0" departPos="5.10" departSpeed="0.00" departDelay="0.00" arrival="1583.00" arrivalLane="6_5_0" arrivalPos="300.00" arrivalSpeed="15.37" duration="621.00" routeLength="794.90" waitingTime="543.00" waitingCount="3" stopTime="0.00" timeLoss="569.70" rerouteNo="0" devices="tripinfo_962" vType="DEFAULT_VEHTYPE" speedFactor="1.13" vaporized=""/>
    <tripinfo id="1527" depart="1527.00" departLane="6_7_0" departPos="5.10" departSpeed="0.00" departDelay="0.00" arrival="1583.00" arrivalLane="7_8_0" arrivalPos="300.00" arrivalSpeed="13.34" duration="56.00" routeLength="694.90" waitingTime="0.00" waitingCount="0" stopTime="0.00" timeLoss="4.87" rerouteNo="0" devices="tripinfo_1527" vType="DEFAULT_VEHTYPE" speedFactor="0.99" vaporized=""/>
    <tripinfo id="695" depart="695.00" departLane="6_2_0" departPos="5.10" departSpeed="0.00" departDelay="0.00" arrival="1584.00" arrivalLane="3_4_1" arrivalPos="300.00" arrivalSpeed="14.81" duration="889.00" routeLength="894.90" waitingTime="773.00" waitingCount="7" stopTime="0.00" timeLoss="830.67" rerouteNo="0" devices="tripinfo_695" vType="DEFAULT_VEHTYPE" speedFactor="1.12" vaporized=""/>
    <tripinfo id="258" depart="1323.00" departLane="3_2_0" departPos="5.10" departSpeed="0.00" departDelay="1065.00" arrival="1584.00" arrivalLane="2_1_0" arrivalPos="300.00" arrivalSpeed="15.15" duration="261.00" routeLength="694.90" waitingTime="190.00" waitingCount="3" stopTime="0.00" timeLoss="215.69" rerouteNo="0" devices="tripinfo_258" vType="DEFAULT_VEHTYPE" speedFactor="1.11" vaporized=""/>
    <tripinfo id="451" depart="451.00" departLane="2_6_0" departPos="5.10" departSpeed="0.00" departDelay="0.00" arrival="1586.00" arrivalLane="7_8_0" arrivalPos="300.00" arrivalSpeed="12.22" duration="1135.00" routeLength="894.90" waitingTime="967.00" waitingCount="14" stopTime="0.00" timeLoss="1067.76" rerouteNo="0" devices="tripinfo_451" vType="DEFAULT_VEHTYPE" speedFactor="0.97" vaporized=""/>
    <tripinfo id="172" depart="172.00" departLane="8_7_0" departPos="5.10" departSpeed="0.00" departDelay="0.00" arrival="1587.00" arrivalLane="7_8_1" arrivalPos="300.00" arrivalSpeed="13.15" duration="1415.00" routeLength="1794.90" waitingTime="1153.00" waitingCount="18" stopTime="0.00" timeLoss="1289.88" rerouteNo="0" devices="tripinfo_172" vType="DEFAULT_VEHTYPE" speedFactor="1.04" vaporized=""/>
    <tripinfo id="1542" depart="1542.00" departLane="5_6_0" departPos="5.10" departSpeed="0.00" departDelay="0.00" arrival="1589.00" arrivalLane="6_2_2" arrivalPos="200.00" arrivalSpeed="13.50" duration="47.00" routeLength="494.90" waitingTime="2.00" waitingCount="1" stopTime="0.00" timeLoss="11.57" rerouteNo="0" devices="tripinfo_1542" vType="DEFAULT_VEHTYPE" speedFactor="1.01" vaporized=""/>
    <tripinfo id="170" depart="170.00" departLane="7_3_0" departPos="5.10" departSpeed="0.00" departDelay="0.00" arrival="1592.00" arrivalLane="6_7_0" arrivalPos="400.00" arrivalSpeed="13.55" duration="1422.00" routeLength="1194.90" waitingTime="1207.00" waitingCount="18" stopTime="0.00" timeLoss="1340.72" rerouteNo="0" devices="tripinfo_170" vType="DEFAULT_VEHTYPE" speedFactor="1.07" vaporized=""/>
    <tripinfo id="997" depart="997.00" departLane="2_6_0" departPos="5.10" departSpeed="0.00" departDelay="0.00" arrival="1596.00" arrivalLane="6_5_0" arrivalPos="300.00" arrivalSpeed="13.55" duration="599.00" routeLength="494.90" waitingTime="535.00" waitingCount="4" stopTime="0.00" timeLoss="564.61" rerouteNo="0" devices="tripinfo_997" vType="DEFAULT_VEHTYPE" speedFactor="1.04" vaporized=""/>
    <tripinfo id="218" depart="218.00" departLane="2_3_0" departPos="5.10" departSpeed="0.00" departDelay="0.00" arrival="1600.00" arrivalLane="2_1_1" arrivalPos="300.00" arrivalSpeed="12.66" duration="1382.00" routeLength="1494.90" waitingTime="1115.00" waitingCount="19" stopTime="0.00" timeLoss="1267.06" rerouteNo="0" devices="tripinfo_218" vType="DEFAULT_VEHTYPE" speedFactor="0.94" vaporized=""/>
    <tripinfo id="189" depart="189.00" departLane="2_3_0" departPos="5.10" departSpeed="0.00" departDelay="0.00" arrival="1605.00" arrivalLane="6_5_0" arrivalPos="300.00" arrivalSpeed="12.36" duration="1416.00" routeLength="1294.90" waitingTime="1158.00" waitingCount="22" stopTime="0.00" timeLoss="1318.75" rerouteNo="0" devices="tripinfo_189" vType="DEFAULT_VEHTYPE" speedFactor="0.97" vaporized=""/>
    <tripinfo id="737" depart="737.00" departLane="1_2_0" departPos="5.10" departSpeed="0.00" departDelay="0.00" arrival="1617.00" arrivalLane="2_3_2" arrivalPos="400.00" arrivalSpeed="5.36" duration="880.00" routeLength="694.90" waitingTime="763.00" waitingCount="9" stopTime="0.00" timeLoss="828.12" rerouteNo="0" devices="tripinfo_737" vType="DEFAULT_VEHTYPE" speedFactor="0.97" vaporized=""/>
    <tripinfo id="533" depart="533.00" departLane="8_7_0" departPos="5.10" departSpeed="0.00" departDelay="0.00" arrival="1617.00" arrivalLane="2_3_0" arrivalPos="400.00" arrivalSpeed="5.44" duration="1084.00" routeLength="1294.90" waitingTime="885.00" waitingCount="11" stopTime="0.00" timeLoss="967.77" rerouteNo="0" devices="tripinfo_533" vType="DEFAULT_VEHTYPE" speedFactor="0.80" vaporized=""/>
    <tripinfo id="1564" depart="1566.00" departLane="5_6_0" departPos="5.10" departSpeed="0.00" departDelay="2.00" arrival="1639.00" arrivalLane="7_8_0" arrivalPos="300.00" arrivalSpeed="14.79" duration="73.00" routeLength="994.90" waitingTime="0.00" waitingCount="0" stopTime="0.00" timeLoss="6.64" rerouteNo="0" devices="tripinfo_1564" vType="DEFAULT_VEHTYPE" speedFactor="1.08" vaporized=""/>
    <tripinfo id="720" depart="720.00" departLane="2_3_0" departPos="5.10" departSpeed="0.00" departDelay="0.00" arrival="1640.00" arrivalLane="3_4_0" arrivalPos="300.00" arrivalSpeed="12.98" duration="920.00" routeLength="694.90" waitingTime="807.00" waitingCount="8" stopTime="0.00" timeLoss="868.94" rerouteNo="0" devices="tripinfo_720" vType="DEFAULT_VEHTYPE" speedFactor="0.99" vaporized=""/>
    <tripinfo id="788" depart="788.00" departLane="2_3_0" departPos="5.10" departSpeed="0.00" departDelay="0.00" arrival="1651.00" arrivalLane="3_4_1" arrivalPos="300.00" arrivalSpeed="12.77" duration="863.00" routeLength="694.90" waitingTime="749.00" waitingCount="8" stopTime="0.00" timeLoss="812.35" rerouteNo="0" devices="tripinfo_788" vType="DEFAULT_VEHTYPE" speedFactor="1.00" vaporized=""/>
    <tripinfo id="1045" depart="1045.00" departLane="7_3_0" departPos="5.10" departSpeed="0.00" departDelay="0.00" arrival="1667.00" arrivalLane="3_4_0" arrivalPos="300.00" arrivalSpeed="13.02" duration="622.00" routeLength="494.90" waitingTime="570.00" waitingCount="2" stopTime="0.00" timeLoss="585.92" rerouteNo="0" devices="tripinfo_1045" vType="DEFAULT_VEHTYPE" speedFactor="0.99" vaporized=""/>
    <tripinfo id="1003" depart="1003.00" departLane="1_2_0" departPos="5.10" departSpeed="0.00" departDelay="0.00" arrival="1668.00" arrivalLane="6_5_0" arrivalPos="300.00" arrivalSpeed="12.61" duration="665.00" routeLength="794.90" waitingTime="566.00" waitingCount="5" stopTime="0.00" timeLoss="604.32" rerouteNo="0" devices="tripinfo_1003" vType="DEFAULT_VEHTYPE" speedFactor="0.95" vaporized=""/>
    <tripinfo id="740" depart="740.00" departLane="1_2_0" departPos="5.10" departSpeed="0.00" departDelay="0.00" arrival="1669.00" arrivalLane="2_3_2" arrivalPos="400.00" arrivalSpeed="5.31" duration="929.00" routeLength="694.90" waitingTime="790.00" waitingCount="11" stopTime="0.00" timeLoss="876.32" rerouteNo="0" devices="tripinfo_740" vType="DEFAULT_VEHTYPE" speedFactor="0.95" vaporized=""/>
    <tripinfo id="1641" depart="1641.00" departLane="6_2_0" departPos="5.10" departSpeed="0.00" departDelay="0.00" arrival="1675.00" arrivalLane="2_1_2" arrivalPos="300.00" arrivalSpeed="16.06" duration="34.00" routeLength="494.90" waitingTime="0.00" waitingCount="0" stopTime="0.00" timeLoss="4.55" rerouteNo="0" devices="tripinfo_1641" vType="DEFAULT_VEHTYPE" speedFactor="1.24" vaporized=""/>
    <tripinfo id="1603" depart="1603.00" departLane="5_6_0" departPos="5.10" departSpeed="0.00" departDelay="0.00" arrival="1676.00" arrivalLane="7_8_0" arrivalPos="300.00" arrivalSpeed="15.84" duration="73.00" routeLength="994.90" waitingTime="0.00" waitingCount="0" stopTime="0.00" timeLoss="9.54" rerouteNo="0" devices="tripinfo_1603" vType="DEFAULT_VEHTYPE" speedFactor="1.14" vaporized=""/>
    <tripinfo id="64" depart="64.00" departLane="4_3_0" departPos="5.10" departSpeed="0.00" departDelay="0.00" arrival="1680.00" arrivalLane="6_7_0" arrivalPos="400.00" arrivalSpeed="10.65" duration="1616.00" routeLength="1294.90" waitingTime="1369.00" waitingCount="16" stopTime="0.00" timeLoss="1506.21" rerouteNo="0" devices="tripinfo_64" vType="DEFAULT_VEHTYPE" speedFactor="0.85" vaporized=""/>
    <tripinfo id="1621" depart="1621.00" departLane="5_6_0" departPos="5.10" departSpeed="0.00" departDelay="0.00" arrival="1681.00" arrivalLane="6_7_0" arrivalPos="400.00" arrivalSpeed="11.77" duration="60.00" routeLength="694.90" waitingTime="0.00" waitingCount="0" stopTime="0.00" timeLoss="6.53" rerouteNo="0" devices="tripinfo_1621" vType="DEFAULT_VEHTYPE" speedFactor="0.94" vaporized=""/>
    <tripinfo id="1123" depart="1123.00" departLane="7_3_0" departPos="5.10" departSpeed="0.00" departDelay="0.00" arrival="1682.00" arrivalLane="7_3_0" arrivalPos="200.00" arrivalSpeed="13.74" duration="559.00" routeLength="194.90" waitingTime="536.00" waitingCount="1" stopTime="0.00" timeLoss="545.32" rerouteNo="0" devices="tripinfo_1123" vType="DEFAULT_VEHTYPE" speedFactor="1.08" vaporized=""/>
    <tripinfo id="1647" depart="1650.00" departLane="6_7_0" departPos="5.10" departSpeed="0.00" departDelay="3.00" arrival="1683.00" arrivalLane="6_7_0" arrivalPos="400.00" arrivalSpeed="13.38" duration="33.00" routeLength="394.90" waitingTime="0.00" waitingCount="0" stopTime="0.00" timeLoss="4.86" rerouteNo="0" devices="tripinfo_1647" vType="DEFAULT_VEHTYPE" speedFactor="1.02" vaporized=""/>
    <tripinfo id="1114" depart="1114.00" departLane="8_7_0" departPos="5.10" departSpeed="0.00" departDelay="0.00" arrival="1683.00" arrivalLane="7_3_0" arrivalPos="200.00" arrivalSpeed="14.73" duration="569.00" routeLength="494.90" waitingTime="526.00" waitingCount="1" stopTime="0.00" timeLoss="537.80" rerouteNo="0" devices="tripinfo_1114" vType="DEFAULT_VEHTYPE" speedFactor="1.14" vaporized=""/>
    <tripinfo id="847" depart="847.00" departLane="2_3_0" departPos="5.10" departSpeed="0.00" departDelay="0.00" arrival="1690.00" arrivalLane="3_4_1" arrivalPos="300.00" arrivalSpeed="13.76" duration="843.00" routeLength="694.90" waitingTime="724.00" waitingCount="9" stopTime="0.00" timeLoss="795.17" rerouteNo="0" devices="tripinfo_847" vType="DEFAULT_VEHTYPE" speedFactor="1.05" vaporized=""/>
    <tripinfo id="925" depart="925.00" departLane="2_3_0" departPos="5.10" departSpeed="0.00" departDelay="0.00" arrival="1724.00" arrivalLane="3_4_1" arrivalPos="300.00" arrivalSpeed="18.20" duration="799.00" routeLength="694.90" waitingTime="674.00" waitingCount="10" stopTime="0.00" timeLoss="760.59" rerouteNo="0" devices="tripinfo_925" vType="DEFAULT_VEHTYPE" speedFactor="1.31" vaporized=""/>
    <tripinfo id="954" depart="956.00" departLane="5_6_0" departPos="5.10" departSpeed="0.00" departDelay="2.00" arrival="1745.00" arrivalLane="2_3_2" arrivalPos="400.00" arrivalSpeed="5.55" duration="789.00" routeLength="894.90" waitingTime="634.00" waitingCount="9" stopTime="0.00" timeLoss="726.93" rerouteNo="0" devices="tripinfo_954" vType="DEFAULT_VEHTYPE" speedFactor="1.04" vaporized=""/>
    <tripinfo id="745" depart="745.00" departLane="1_2_0" departPos="5.10" departSpeed="0.00" departDelay="0.00" arrival="1747.00" arrivalLane="2_3_2" arrivalPos="400.00" arrivalSpeed="7.18" duration="1002.00" routeLength="694.90" waitingTime="847.00" waitingCount="11" stopTime="0.00" timeLoss="957.25" rerouteNo="0" devices="tripinfo_745" vType="DEFAULT_VEHTYPE" speedFactor="1.12" vaporized=""/>
    <tripinfo id="839" depart="839.00" departLane="1_2_0" departPos="5.10" departSpeed="0.00" departDelay="0.00" arrival="1750.00" arrivalLane="2_3_2" arrivalPos="400.00" arrivalSpeed="9.06" duration="911.00" routeLength="694.90" waitingTime="745.00" waitingCount="13" stopTime="0.00" timeLoss="853.43" rerouteNo="0" devices="tripinfo_839" vType="DEFAULT_VEHTYPE" speedFactor="0.88" vaporized=""/>
    <tripinfo id="1665" depart="1665.00" departLane="5_6_0" departPos="5.10" departSpeed="0.00" departDelay="0.00" arrival="1752.00" arrivalLane="7_8_0" arrivalPos="300.00" arrivalSpeed="12.25" duration="87.00" routeLength="994.90" waitingTime="0.00" waitingCount="0" stopTime="0.00" timeLoss="6.82" rerouteNo="0" devices="tripinfo_1665" vType="DEFAULT_VEHTYPE" speedFactor="0.90" vaporized=""/>
    <tripinfo id="773" depart="773.00" departLane="1_2_0" departPos="5.10" departSpeed="0.00" departDelay="0.00" arrival="1752.00" arrivalLane="2_3_2" arrivalPos="400.00" arrivalSpeed="10.86" duration="979.00" routeLength="694.90" waitingTime="815.00" waitingCount="11" stopTime="0.00" timeLoss="923.99" rerouteNo="0" devices="tripinfo_773" vType="DEFAULT_VEHTYPE" speedFactor="0.92" vaporized=""/>
    <tripinfo id="1704" depart="1704.00" departLane="6_7_0" departPos="5.10" departSpeed="0.00" departDelay="0.00" arrival="1758.00" arrivalLane="7_8_0" arrivalPos="300.00" arrivalSpeed="14.15" duration="54.00" routeLength="694.90" waitingTime="0.00" waitingCount="0" stopTime="0.00" timeLoss="5.09" rerouteNo="0" devices="tripinfo_1704" vType="DEFAULT_VEHTYPE" speedFactor="1.04" vaporized=""/>